          12
Step:      100
C      3.29000000     3.96000000     0.00000000
C      0.00000000     1.77000000     0.00000000
C      0.00000000    -1.77000000     0.00000000
C     -3.29000000    -3.96000000     0.00000000
O      2.03609610     2.03588619     2.03647087
O      4.07226537     4.07216929     4.07254798
O     -2.03609610    -2.03588619    -2.03647087
O     -4.07226537    -4.07216929    -4.07254798
O      6.10820887     6.10816343     6.10834585
O      8.14407486     8.14404914     8.14415231
O     -6.10820887    -6.10816343    -6.10834585
O     -8.14407486    -8.14404914    -8.14415231
          12
Step:      200
C      3.29000000     3.96000000     0.00000000
C      0.00000000     1.77000000     0.00000000
C      0.00000000    -1.77000000     0.00000000
C     -3.29000000    -3.96000000     0.00000000
O      2.02440268     2.02356302     2.02589978
O      4.04909891     4.04871431     4.05022998
O     -2.02440268    -2.02356302    -2.02589978
O     -4.04909891    -4.04871431    -4.05022998
O      6.07289441     6.07271251     6.07344277
O      8.09637962     8.09627666     8.09668961
O     -6.07289441    -6.07271251    -6.07344277
O     -8.09637962    -8.09627666    -8.09668961
          12
Step:      300
C      3.29000000     3.96000000     0.00000000
C      0.00000000     1.77000000     0.00000000
C      0.00000000    -1.77000000     0.00000000
C     -3.29000000    -3.96000000     0.00000000
O      2.00497458     2.00308512     2.00833562
O      4.01061261     4.00974630     4.01315994
O     -2.00497458    -2.00308512    -2.00833562
O     -4.01061261    -4.00974630    -4.01315994
O      6.01423313     6.01382333     6.01546857
O      8.01715440     8.01692249     8.01785269
O     -6.01423313    -6.01382333    -6.01546857
O     -8.01715440    -8.01692249    -8.01785269
          12
Step:      400
C      3.29000000     3.96000000     0.00000000
C      0.00000000     1.77000000     0.00000000
C      0.00000000    -1.77000000     0.00000000
C     -3.29000000    -3.96000000     0.00000000
O      1.97790289     1.97454328     1.98385957
O      3.95699236     3.95544981     3.96152705
O     -1.97790289    -1.97454328    -1.98385957
O     -3.95699236    -3.95544981    -3.96152705
O      5.93251809     5.93178825     5.93471866
O      7.90679800     7.90638510     7.90804148
O     -5.93251809    -5.93178825    -5.93471866
O     -7.90679800    -7.90638510    -7.90804148
          12
Step:      500
C      3.29000000     3.96000000     0.00000000
C      0.00000000     1.77000000     0.00000000
C      0.00000000    -1.77000000     0.00000000
C     -3.29000000    -3.96000000     0.00000000
O      1.94331463     1.93806389     1.95258473
O      3.88849678     3.88608151     3.89559464
O     -1.94331463    -1.93806389    -1.95258473
O     -3.88849678    -3.88608151    -3.89559464
O      5.82815736     5.82701427     5.83160452
O      7.76586585     7.76521938     7.76781313
O     -5.82815736    -5.82701427    -5.83160452
O     -7.76586585    -7.76521938    -7.76781313
          12
Step:      600
C      3.29000000     3.96000000     0.00000000
C      0.00000000     1.77000000     0.00000000
C      0.00000000    -1.77000000     0.00000000
C     -3.29000000    -3.96000000     0.00000000
O      1.90137213     1.89380831     1.91465559
O      3.80545555     3.80196847     3.81569865
O     -1.90137213    -1.89380831    -1.91465559
O     -3.80545555    -3.80196847    -3.81569865
O      5.70167175     5.70002069     5.70665174
O      7.59506707     7.59413372     7.59787922
O     -5.70167175    -5.70002069    -5.70665174
O     -7.59506707    -7.59413372    -7.59787922
          12
Step:      700
C      3.29000000     3.96000000     0.00000000
C      0.00000000     1.77000000     0.00000000
C      0.00000000    -1.77000000     0.00000000
C     -3.29000000    -3.96000000     0.00000000
O      1.85227235     1.84197193     1.87024731
O      3.70826735     3.70350594     3.72224555
O     -1.85227235    -1.84197193    -1.87024731
O     -3.70826735    -3.70350594    -3.72224555
O      5.55369188     5.55143612     5.56049736
O      7.39526080     7.39398623     7.39910220
O     -5.55369188    -5.55143612    -5.56049736
O     -7.39526080    -7.39398623    -7.39910220
          12
Step:      800
C      3.29000000     3.96000000     0.00000000
C      0.00000000     1.77000000     0.00000000
C      0.00000000    -1.77000000     0.00000000
C     -3.29000000    -3.96000000     0.00000000
O      1.79624593     1.78278310     1.81956494
O      3.59739731     3.59115475     3.61570987
O     -1.79624593    -1.78278310    -1.81956494
O     -3.59739731    -3.59115475    -3.61570987
O      5.38495466     5.38199480     5.39388674
O      7.16745163     7.16578012     7.17249118
O     -5.38495466    -5.38199480    -5.39388674
O     -7.16745163    -7.16578012    -7.17249118
          12
Step:      900
C      3.29000000     3.96000000     0.00000000
C      0.00000000     1.77000000     0.00000000
C      0.00000000    -1.77000000     0.00000000
C     -3.29000000    -3.96000000     0.00000000
O      1.73355615     1.71650169     1.76284251
O      3.47337404     3.46543817     3.49663104
O     -1.73355615    -1.71650169    -1.76284251
O     -3.47337404    -3.46543817    -3.49663104
O      5.19629910     5.19253223     5.20766979
O      6.91278431     6.91065828     6.91919688
O     -5.19629910    -5.19253223    -5.20766979
O     -6.91278431    -6.91065828    -6.91919688
          12
Step:     1000
C      3.29000000     3.96000000     0.00000000
C      0.00000000     1.77000000     0.00000000
C      0.00000000    -1.77000000     0.00000000
C     -3.29000000    -3.96000000     0.00000000
O      1.66449753     1.64341746     1.70034196
O      3.33678627     3.32693849     3.36560973
O     -1.66449753    -1.64341746    -1.70034196
O     -3.33678627    -3.32693849    -3.36560973
O      4.98866137     4.98398003     5.00279673
O      6.63253761     6.62989701     6.64050598
O     -4.98866137    -4.98398003    -5.00279673
O     -6.63253761    -6.62989701    -6.64050598
          12
Step:     1100
C      3.29000000     3.96000000     0.00000000
C      0.00000000     1.77000000     0.00000000
C      0.00000000    -1.77000000     0.00000000
C     -3.29000000    -3.96000000     0.00000000
O      1.58939430     1.56384812     1.63235198
O      3.18827927     3.17629327     3.22330354
O     -1.58939430    -1.56384812    -1.63235198
O     -3.18827927    -3.17629327    -3.22330354
O      4.76306920     4.75736009     4.78031310
O      6.32811736     6.32489890     6.33783474
O     -4.76306920    -4.75736009    -4.78031310
O     -6.32811736    -6.32489890    -6.33783474
          12
Step:     1200
C      3.29000000     3.96000000     0.00000000
C      0.00000000     1.77000000     0.00000000
C      0.00000000    -1.77000000     0.00000000
C     -3.29000000    -3.96000000     0.00000000
O      1.50859852     1.47813707     1.55918676
O      3.02855099     3.01419146     3.07042207
O     -1.50859852    -1.47813707    -1.55918676
O     -3.02855099    -3.01419146    -3.07042207
O      4.52063552     4.51377786     4.54135429
O      6.00104875     5.99718478     6.01272204
O     -4.52063552    -4.51377786    -4.54135429
O     -6.00104875    -5.99718478    -6.01272204
          12
Step:     1300
C      3.29000000     3.96000000     0.00000000
C      0.00000000     1.77000000     0.00000000
C      0.00000000    -1.77000000     0.00000000
C     -3.29000000    -3.96000000     0.00000000
O      1.42248785     1.38665075     1.48118445
O      2.85834830     2.84136952     2.90772137
O     -1.42248785    -1.38665075    -1.48118445
O     -2.85834830    -2.84136952    -2.90772137
O      4.26255132     4.25441479     4.28713914
O      5.65296764     5.64838484     5.66682171
O     -4.26255132    -4.25441479    -4.28713914
O     -5.65296764    -5.64838484    -5.66682171
          12
Step:     1400
C      3.29000000     3.96000000     0.00000000
C      0.00000000     1.77000000     0.00000000
C      0.00000000    -1.77000000     0.00000000
C     -3.29000000    -3.96000000     0.00000000
O      1.33146291     1.28977576     1.39870559
O      2.67846341     2.65860780     2.73599820
O     -1.33146291    -1.28977576    -1.39870559
O     -2.67846341    -2.65860780    -2.73599820
O      3.99007751     3.98051981     4.01896255
O      5.28561100     5.28022847     5.30189424
O     -3.99007751    -3.98051981    -4.01896255
O     -5.28561100    -5.28022847    -5.30189424
          12
Step:     1500
C      3.29000000     3.96000000     0.00000000
C      0.00000000     1.77000000     0.00000000
C      0.00000000    -1.77000000     0.00000000
C     -3.29000000    -3.96000000     0.00000000
O      1.23594426     1.18791564     1.31213124
O      2.48973071     2.46672718     2.55608430
O     -1.23594426    -1.18791564    -1.31213124
O     -2.48973071    -2.46672718    -2.55608430
O      3.70453613     3.69340002     3.73818673
O      4.90080617     4.89453304     4.91979771
O     -3.70453613    -3.69340002    -3.73818673
O     -4.90080617    -4.89453304    -4.91979771
          12
Step:     1600
C      3.29000000     3.96000000     0.00000000
C      0.00000000     1.77000000     0.00000000
C      0.00000000    -1.77000000     0.00000000
C     -3.29000000    -3.96000000     0.00000000
O      1.13636874     1.08148744     1.22186090
O      2.29302403     2.26658589     2.36884145
O     -1.13636874    -1.08148744    -1.22186090
O     -2.29302403    -2.26658589    -2.36884145
O      3.40730069     3.39441072     3.44623043
O      4.50045880     4.49319100     4.52247769
O     -3.40730069    -3.39441072    -3.44623043
O     -4.50045880    -4.49319100    -4.52247769
          12
Step:     1700
C      3.29000000     3.96000000     0.00000000
C      0.00000000     1.77000000     0.00000000
C      0.00000000    -1.77000000     0.00000000
C     -3.29000000    -3.96000000     0.00000000
O      1.03318543     0.97091833     1.12831034
O      2.08925406     2.05907588     2.17515779
O     -1.03318543    -0.97091833    -1.12831034
O     -2.08925406    -2.05907588    -2.17515779
O      3.09978666     3.08494573     3.14455553
O      4.08653909     4.07815521     4.11195529
O     -3.09978666    -3.08494573    -3.14455553
O     -4.08653909    -4.07815521    -4.11195529
          12
Step:     1800
C      3.29000000     3.96000000     0.00000000
C      0.00000000     1.77000000     0.00000000
C      0.00000000    -1.77000000     0.00000000
C     -3.29000000    -3.96000000     0.00000000
O      0.92685118     0.85664228     1.03190961
O      1.87936522     1.84511802     1.97594588
O     -0.92685118    -0.85664228    -1.03190961
O     -1.87936522    -1.84511802    -1.97594588
O      2.78344304     2.76642934     2.83465121
O      3.66106611     3.65142218     3.69031214
O     -2.78344304    -2.76642934    -2.83465121
O     -3.66106611    -3.65142218    -3.69031214
          12
Step:     1900
C      3.29000000     3.96000000     0.00000000
C      0.00000000     1.77000000     0.00000000
C      0.00000000    -1.77000000     0.00000000
C     -3.29000000    -3.96000000     0.00000000
O      0.81782594     0.73909691     0.93310176
O      1.66433091     1.62565475     1.77214197
O     -0.81782594    -0.73909691    -0.93310176
O     -1.66433091    -1.62565475    -1.77214197
O      2.45974738     2.44031165     2.51801722
O      3.22609062     3.21501431     3.25966962
O     -2.45974738    -2.44031165    -2.51801722
O     -3.22609062    -3.21501431    -3.25966962
          12
Step:     2000
C      3.29000000     3.96000000     0.00000000
C      0.00000000     1.77000000     0.00000000
C      0.00000000    -1.77000000     0.00000000
C     -3.29000000    -3.96000000     0.00000000
O      0.70656843     0.61872002     0.83234327
O      1.44514596     1.40163932     1.56470603
O     -0.70656843    -0.61872002    -0.83234327
O     -1.44514596    -1.40163932    -1.56470603
O      2.13020484     2.10806740     2.19615086
O      2.78367929     2.77096454     2.82215980
O     -2.13020484    -2.10806740    -2.19615086
O     -2.78367929    -2.77096454    -2.82215980
          12
Step:     2100
C      3.29000000     3.96000000     0.00000000
C      0.00000000     1.77000000     0.00000000
C      0.00000000    -1.77000000     0.00000000
C     -3.29000000    -3.96000000     0.00000000
O      0.59353231     0.49594420     0.73010810
O      1.22281450     1.17402102     1.35462116
O     -0.59353231    -0.49594420    -0.73010810
O     -1.22281450    -1.17402102    -1.35462116
O      1.79634912     1.77119394     1.87054211
O      2.33590712     2.32131057     2.37989019
O     -1.79634912    -1.77119394    -1.87054211
O     -2.33590712    -2.32131057    -2.37989019
          12
Step:     2200
C      3.29000000     3.96000000     0.00000000
C      0.00000000     1.77000000     0.00000000
C      0.00000000    -1.77000000     0.00000000
C     -3.29000000    -3.96000000     0.00000000
O      0.47916296     0.37118569     0.62689795
O      0.99833179     0.94372710     1.14289261
O     -0.47916296    -0.37118569    -0.62689795
O     -0.99833179    -0.94372710    -1.14289261
O      1.45973783     1.43120003     1.54267614
O      1.88486364     1.86810154     1.93491636
O     -1.45973783    -1.43120003    -1.54267614
O     -1.88486364    -1.86810154    -1.93491636
          12
Step:     2300
C      3.29000000     3.96000000     0.00000000
C      0.00000000     1.77000000     0.00000000
C      0.00000000    -1.77000000     0.00000000
C     -3.29000000    -3.96000000     0.00000000
O      0.36389308     0.24481860     0.52326380
O      0.77265814     0.71164280     0.93055040
O     -0.36389308    -0.24481860    -0.52326380
O     -0.77265814    -0.71164280    -0.93055040
O      1.12193239     1.08957924     1.21403335
O      1.43266192     1.41340029     1.48923667
O     -1.12193239    -1.08957924    -1.21403335
O     -1.43266192    -1.41340029    -1.48923667
          12
Step:     2400
C      3.29000000     3.96000000     0.00000000
C      0.00000000     1.77000000     0.00000000
C      0.00000000    -1.77000000     0.00000000
C     -3.29000000    -3.96000000     0.00000000
O      0.24813130     0.11711280     0.41985072
O      0.54668509     0.47858553     0.71867481
O     -0.24813130    -0.11711280    -0.41985072
O     -0.54668509    -0.47858553    -0.71867481
O      0.78445133     0.74777226     0.88607410
O      0.98141694     0.95925373     1.04478454
O     -0.78445133    -0.74777226    -0.88607410
O     -0.98141694    -0.95925373    -1.04478454
          12
Step:     2500
C      3.29000000     3.96000000     0.00000000
C      0.00000000     1.77000000     0.00000000
C      0.00000000    -1.77000000     0.00000000
C     -3.29000000    -3.96000000     0.00000000
O      0.13222234    -0.01193614     0.31750026
O      0.32118753     0.24522742     0.50851551
O     -0.13222234     0.01193614    -0.31750026
O     -0.32118753    -0.24522742    -0.50851551
O      0.44868654     0.40713572     0.56021673
O      0.53315212     0.50765757     0.60333026
O     -0.44868654    -0.40713572    -0.56021673
O     -0.53315212    -0.50765757    -0.60333026
          12
Step:     2600
C      3.29000000     3.96000000     0.00000000
C      0.00000000     1.77000000     0.00000000
C      0.00000000    -1.77000000     0.00000000
C     -3.29000000    -3.96000000     0.00000000
O      0.01627536    -0.14320634     0.21754407
O      0.09675629     0.01175104     0.30216054
O     -0.01627536     0.14320634    -0.21754407
O     -0.09675629    -0.01175104    -0.30216054
O      0.11579912     0.06883992     0.23808644
O      0.08942325     0.06053596     0.16577279
O     -0.11579912    -0.06883992    -0.23808644
O     -0.08942325    -0.06053596    -0.16577279
          12
Step:     2700
C      3.29000000     3.96000000     0.00000000
C      0.00000000     1.77000000     0.00000000
C      0.00000000    -1.77000000     0.00000000
C     -3.29000000    -3.96000000     0.00000000
O     -0.10026340    -0.27993952     0.12224201
O     -0.12629675    -0.22244063     0.10339891
O      0.10026340     0.27993952    -0.12224201
O      0.12629675     0.22244063    -0.10339891
O     -0.21493186    -0.26787216    -0.07947666
O     -0.35338321    -0.38549157    -0.27070660
O      0.21493186     0.26787216     0.07947666
O      0.35338321     0.38549157     0.27070660
          12
Step:     2800
C      3.29000000     3.96000000     0.00000000
C      0.00000000     1.77000000     0.00000000
C      0.00000000    -1.77000000     0.00000000
C     -3.29000000    -3.96000000     0.00000000
O     -0.21704938    -0.42203473     0.03112954
O     -0.35084662    -0.45860682    -0.09161517
O      0.21704938     0.42203473    -0.03112954
O      0.35084662     0.45860682     0.09161517
O     -0.54864926    -0.60746958    -0.39826962
O     -0.80105773    -0.83598964    -0.71157957
O      0.54864926     0.60746958     0.39826962
O      0.80105773     0.83598964     0.71157957
          12
Step:     2900
C      3.29000000     3.96000000     0.00000000
C      0.00000000     1.77000000     0.00000000
C      0.00000000    -1.77000000     0.00000000
C     -3.29000000    -3.96000000     0.00000000
O     -0.33346109    -0.56612625    -0.05745244
O     -0.57754407    -0.69652341    -0.28637505
O      0.33346109     0.56612625     0.05745244
O      0.57754407     0.69652341     0.28637505
O     -0.88526677    -0.94924045    -0.71973380
O     -1.25248510    -1.28936693    -1.15670931
O      0.88526677     0.94924045     0.71973380
O      1.25248510     1.28936693     1.15670931
          12
Step:     3000
C      3.29000000     3.96000000     0.00000000
C      0.00000000     1.77000000     0.00000000
C      0.00000000    -1.77000000     0.00000000
C     -3.29000000    -3.96000000     0.00000000
O     -0.44928606    -0.71058888    -0.14425917
O     -0.80550556    -0.93501255    -0.48119957
O      0.44928606     0.71058888     0.14425917
O      0.80550556     0.93501255     0.48119957
O     -1.22347115    -1.29168643    -1.04309969
O     -1.70571085    -1.74370143    -1.60447987
O      1.22347115     1.29168643     1.04309969
O      1.70571085     1.74370143     1.60447987
          12
Step:     3100
C      3.29000000     3.96000000     0.00000000
C      0.00000000     1.77000000     0.00000000
C      0.00000000    -1.77000000     0.00000000
C     -3.29000000    -3.96000000     0.00000000
O     -0.56419906    -0.85436480    -0.22951032
O     -1.03379160    -1.17291230    -0.67582037
O      0.56419906     0.85436480     0.22951032
O      1.03379160     1.17291230     0.67582037
O     -1.56176148    -1.63333328    -1.36723554
O     -2.15861653    -2.19698906    -2.05302699
O      1.56176148     1.63333328     1.36723554
O      2.15861653     2.19698906     2.05302699
          12
Step:     3200
C      3.29000000     3.96000000     0.00000000
C      0.00000000     1.77000000     0.00000000
C      0.00000000    -1.77000000     0.00000000
C     -3.29000000    -3.96000000     0.00000000
O     -0.67783393    -0.99659805    -0.31321839
O     -1.26140185    -1.40914604    -0.86973884
O      0.67783393     0.99659805     0.31321839
O      1.26140185     1.40914604     0.86973884
O     -1.89854588    -1.97266347    -1.69085494
O     -2.60906551    -2.64717466    -2.50039770
O      1.89854588     1.97266347     1.69085494
O      2.60906551     2.64717466     2.50039770
          12
Step:     3300
C      3.29000000     3.96000000     0.00000000
C      0.00000000     1.77000000     0.00000000
C      0.00000000    -1.77000000     0.00000000
C     -3.29000000    -3.96000000     0.00000000
O     -0.78979973    -1.13655088    -0.39529585
O     -1.48727747    -1.64265726    -1.06232465
O      0.78979973     1.13655088     0.39529585
O      1.48727747     1.64265726     1.06232465
O     -2.23221918    -2.30812838    -2.01260837
O     -3.05495129    -3.09221024    -2.94457479
O      2.23221918     2.30812838     2.01260837
O      3.05495129     3.09221024     2.94457479
          12
Step:     3400
C      3.29000000     3.96000000     0.00000000
C      0.00000000     1.77000000     0.00000000
C      0.00000000    -1.77000000     0.00000000
C     -3.29000000    -3.96000000     0.00000000
O     -0.89967897    -1.27356415    -0.47559367
O     -1.71033332    -1.87238125    -1.25287605
O      0.89967897     1.27356415     0.47559367
O      1.71033332     1.87238125     1.25287605
O     -2.56120240    -2.63818582    -2.33111612
O     -3.49419142    -3.53006534    -3.38347170
O      2.56120240     2.63818582     2.33111612
O      3.49419142     3.53006534     3.38347170
          12
Step:     3500
C      3.29000000     3.96000000     0.00000000
C      0.00000000     1.77000000     0.00000000
C      0.00000000    -1.77000000     0.00000000
C     -3.29000000    -3.96000000     0.00000000
O     -1.00702689    -1.40702817    -0.55391886
O     -1.92948765    -2.09725006    -1.44065904
O      1.00702689     1.40702817     0.55391886
O      1.92948765     2.09725006     1.44065904
O     -2.88395518    -2.96132332    -2.64497156
O     -3.92471211    -3.95871557    -3.81495201
O      2.88395518     2.96132332     2.64497156
O      3.92471211     3.95871557     3.81495201
          12
Step:     3600
C      3.29000000     3.96000000     0.00000000
C      0.00000000     1.77000000     0.00000000
C      0.00000000    -1.77000000     0.00000000
C     -3.29000000    -3.96000000     0.00000000
O     -1.11137720    -1.53636145    -0.63004688
O     -2.14368168    -2.31620809    -1.62492933
O      1.11137720     1.53636145     0.63004688
O      2.14368168     2.31620809     1.62492933
O     -3.19897317    -3.27606304    -2.95273994
O     -4.34444883    -4.37614153    -4.23686782
O      3.19897317     3.27606304     2.95273994
O      4.34444883     4.37614153     4.23686782
          12
Step:     3700
C      3.29000000     3.96000000     0.00000000
C      0.00000000     1.77000000     0.00000000
C      0.00000000    -1.77000000     0.00000000
C     -3.29000000    -3.96000000     0.00000000
O     -1.21225242    -1.66099889    -0.70373287
O     -2.35189137    -2.52822718    -1.80494271
O      1.21225242     1.66099889     0.70373287
O      2.35189137     2.52822718     1.80494271
O     -3.50478179    -3.58095784    -3.25296692
O     -4.75136046    -4.78034213    -4.64709531
O      3.50478179     3.58095784     3.25296692
O      4.75136046     4.78034213     4.64709531
          12
Step:     3800
C      3.29000000     3.96000000     0.00000000
C      0.00000000     1.77000000     0.00000000
C      0.00000000    -1.77000000     0.00000000
C     -3.29000000    -3.96000000     0.00000000
O     -1.30917479    -1.78038830    -0.77472160
O     -2.55313408    -2.73231754    -1.97995852
O      1.30917479     1.78038830     0.77472160
O      2.55313408     2.73231754     1.97995852
O     -3.79993486    -3.87458944    -3.54419680
O     -5.14344746    -5.16935330    -5.04355974
O      3.79993486     3.87458944     3.54419680
O      5.14344746     5.16935330     5.04355974
          12
Step:     3900
C      3.29000000     3.96000000     0.00000000
C      0.00000000     1.77000000     0.00000000
C      0.00000000    -1.77000000     0.00000000
C     -3.29000000    -3.96000000     0.00000000
O     -1.40167554    -1.89399204    -0.84275540
O     -2.74647139    -2.92753422    -2.14924003
O      1.40167554     1.89399204     0.84275540
O      2.74647139     2.92753422     2.14924003
O     -4.08301991    -4.15557264    -3.82499342
O     -5.51876892    -5.54126607    -5.42425294
O      4.08301991     4.15557264     3.82499342
O      5.51876892     5.54126607     5.42425294
          12
Step:     4000
C      3.29000000     3.96000000     0.00000000
C      0.00000000     1.77000000     0.00000000
C      0.00000000    -1.77000000     0.00000000
C     -3.29000000    -3.96000000     0.00000000
O     -1.48930195    -2.00129091    -0.90758016
O     -2.93100915    -3.11297942    -2.31205507
O      1.48930195     2.00129091     0.90758016
O      2.93100915     3.11297942     2.31205507
O     -4.35266735    -4.42256419    -4.09395830
O     -5.87545735    -5.89424247    -5.78724634
O      4.35266735     4.42256419     4.09395830
O      5.87545735     5.89424247     5.78724634
          12
Step:     4100
C      3.29000000     3.96000000     0.00000000
C      0.00000000     1.77000000     0.00000000
C      0.00000000    -1.77000000     0.00000000
C     -3.29000000    -3.96000000     0.00000000
O     -1.57162266    -2.10178875    -0.96894965
O     -3.10589666    -3.28780269    -2.46767905
O      1.57162266     2.10178875     0.96894965
O      3.10589666     3.28780269     2.46767905
O     -4.60756089    -4.67427315    -4.34974486
O     -6.21173156    -6.22652916    -6.13070182
O      4.60756089     4.67427315     4.34974486
O      6.21173156     6.22652916     6.13070182
          12
Step:     4200
C      3.29000000     3.96000000     0.00000000
C      0.00000000     1.77000000     0.00000000
C      0.00000000    -1.77000000     0.00000000
C     -3.29000000    -3.96000000     0.00000000
O     -1.64823162    -2.19501677    -1.02662863
O     -3.27032643    -3.45120074    -2.61540089
O      1.64823162     2.19501677     1.02662863
O      3.27032643     3.45120074     2.61540089
O     -4.84644750    -4.90947127    -4.59106934
O     -6.52590789    -6.53646932    -6.45288139
O      4.84644750     4.90947127     4.59106934
O      6.52590789     6.53646932     6.45288139
          12
Step:     4300
C      3.29000000     3.96000000     0.00000000
C      0.00000000     1.77000000     0.00000000
C      0.00000000    -1.77000000     0.00000000
C     -3.29000000    -3.96000000     0.00000000
O     -1.71875115    -2.28053747    -1.08039516
O     -3.42353540    -3.60241842    -2.75453065
O      1.71875115     2.28053747     1.08039516
O      3.42353540     3.60241842     2.75453065
O     -5.06814642    -5.12700236    -4.81671968
O     -6.81641027    -6.82251310    -6.75215595
O      5.06814642     5.12700236     4.81671968
O      6.81641027     6.82251310     6.75215595
          12
Step:     4400
C      3.29000000     3.96000000     0.00000000
C      0.00000000     1.77000000     0.00000000
C      0.00000000    -1.77000000     0.00000000
C     -3.29000000    -3.96000000     0.00000000
O     -1.78283429    -2.35794787    -1.13004220
O     -3.56480773    -3.74075105    -2.88440764
O      1.78283429     2.35794787     1.13004220
O      3.56480773     3.74075105     2.88440764
O     -5.27155722    -5.32579063    -5.02556280
O     -7.08177921    -7.08322686    -7.02701344
O      5.27155722     5.32579063     5.02556280
O      7.08177921     7.08322686     7.02701344
          12
Step:     4500
C      3.29000000     3.96000000     0.00000000
C      0.00000000     1.77000000     0.00000000
C      0.00000000    -1.77000000     0.00000000
C     -3.29000000    -3.96000000     0.00000000
O     -1.84016671    -2.42688228    -1.17537893
O     -3.69347853    -3.86554785    -3.00440793
O      1.84016671     2.42688228     1.17537893
O      3.69347853     3.86554785     3.00440793
O     -5.45566685    -5.50484809    -5.21655098
O     -7.32067992    -7.31730146    -7.27606636
O      5.45566685     5.50484809     5.21655098
O      7.32067992     7.31730146     7.27606636
          12
Step:     4600
C      3.29000000     3.96000000     0.00000000
C      0.00000000     1.77000000     0.00000000
C      0.00000000    -1.77000000     0.00000000
C     -3.29000000    -3.96000000     0.00000000
O     -1.89046821    -2.48701452    -1.21623159
O     -3.80893799    -3.97621585    -3.11395082
O      1.89046821     2.48701452     1.21623159
O      3.80893799     3.97621585     3.11395082
O     -5.61955587    -5.66328089    -5.38872748
O     -7.53190953    -7.52355962    -7.49805867
O      5.61955587     5.66328089     5.38872748
O      7.53190953     7.52355962     7.49805867
          12
Step:     4700
C      3.29000000     3.96000000     0.00000000
C      0.00000000     1.77000000     0.00000000
C      0.00000000    -1.77000000     0.00000000
C     -3.29000000    -3.96000000     0.00000000
O     -1.93349390    -2.53805970    -1.25244434
O     -3.91063553    -4.07222395    -3.21250424
O      1.93349390     2.53805970     1.25244434
O      3.91063553     4.07222395     3.21250424
O     -5.76240389    -5.80029488    -5.54123153
O     -7.71440359    -7.70096233    -7.69187204
O      5.76240389     5.80029488     5.54123153
O      7.71440359     7.70096233     7.69187204
          12
Step:     4800
C      3.29000000     3.96000000     0.00000000
C      0.00000000     1.77000000     0.00000000
C      0.00000000    -1.77000000     0.00000000
C     -3.29000000    -3.96000000     0.00000000
O     -1.96903507    -2.57977555    -1.28387984
O     -3.99808365    -4.15310667    -3.29958913
O      1.96903507     2.57977555     1.28387984
O      3.99808365     4.15310667     3.29958913
O     -5.88349429    -5.91520040    -5.67330278
O     -7.86724163    -7.84861452    -7.85653144
O      5.88349429     5.91520040     5.67330278
O      7.86724163     7.84861452     7.85653144
          12
Step:     4900
C      3.29000000     3.96000000     0.00000000
C      0.00000000     1.77000000     0.00000000
C      0.00000000    -1.77000000     0.00000000
C     -3.29000000    -3.96000000     0.00000000
O     -1.99691994    -2.61196353    -1.31041982
O     -4.07086129    -4.21846750    -3.37478302
O      1.99691994     2.61196353     1.31041982
O      4.07086129     4.21846750     3.37478302
O     -5.98221828    -6.00741627    -5.78428515
O     -7.98965207    -7.96576985    -7.99121000
O      5.98221828     6.00741627     5.78428515
O      7.98965207     7.96576985     7.99121000
          12
Step:     5000
C      3.29000000     3.96000000     0.00000000
C      0.00000000     1.77000000     0.00000000
C      0.00000000    -1.77000000     0.00000000
C     -3.29000000    -3.96000000     0.00000000
O     -2.01701411    -2.63446962    -1.33196563
O     -4.12861682    -4.26798171    -3.43772302
O      2.01701411     2.63446962     1.33196563